 Entering Gaussian System, Link 0=gdv
 Initial command:
 /Users/hhratchian/gauss/exe-dir/l1.exe "/Users/hhratchian/.scratch/Gau-64917.inp" -scrdir="/Users/hhratchian/.scratch/" -exedir="/Users/hhratchian/gauss:/Users/hhratchian/gauss/exe-dir:/Users/hhratchian/.gaussian/gdv-current/gdv/bsd:/Users/hhratchian/.gaussian/gdv-current/gdv/local:/Users/hhratchian/.gaussian/gdv-current/gdv/extras:/Users/hhratchian/.gaussian/gdv-current/gdv"
 Entering Link 1 = /Users/hhratchian/gauss/exe-dir/l1.exe PID=     64918.
  
 Copyright (c) 1988,1990,1992,1993,1995,1998,2003,2009,2016,
            Gaussian, Inc.  All Rights Reserved.
  
 This is the private, development version of
 the Gaussian(R) DV system of programs. It is based on
 the Gaussian(R) 09 system (copyright 2009, Gaussian, Inc.),
 the Gaussian(R) 03 system (copyright 2003, Gaussian, Inc.),
 the Gaussian(R) 98 system (copyright 1998, Gaussian, Inc.),
 the Gaussian(R) 94 system (copyright 1995, Gaussian, Inc.),
 the Gaussian 92(TM) system (copyright 1992, Gaussian, Inc.),
 the Gaussian 90(TM) system (copyright 1990, Gaussian, Inc.),
 the Gaussian 88(TM) system (copyright 1988, Gaussian, Inc.),
 the Gaussian 86(TM) system (copyright 1986, Carnegie Mellon
 University), and the Gaussian 82(TM) system (copyright 1983,
 Carnegie Mellon University). Gaussian is a federally registered
 trademark of Gaussian, Inc.
  
 This software contains proprietary and confidential information,
 including trade secrets, belonging to Gaussian, Inc.
  
 This software is provided under written license and may be
 used, copied, transmitted, or stored only in accord with that
 written license.
  
 The following legend is applicable only to US Government
 contracts under FAR:
  
                    RESTRICTED RIGHTS LEGEND
  
 Use, reproduction and disclosure by the US Government is
 subject to restrictions as set forth in subparagraphs (a)
 and (c) of the Commercial Computer Software - Restricted
 Rights clause in FAR 52.227-19.
  
 Gaussian, Inc.
 340 Quinnipiac St., Bldg. 40, Wallingford CT 06492
  
  
 ---------------------------------------------------------------
 Warning -- This program may not be used in any manner that
 competes with the business of Gaussian, Inc. or will provide
 assistance to any competitor of Gaussian, Inc.  The licensee
 of this program is prohibited from giving any competitor of
 Gaussian, Inc. access to this program.  By using this program,
 the user acknowledges that Gaussian, Inc. is engaged in the
 business of creating and licensing software in the field of
 computational chemistry and represents and warrants to the
 licensee that it is not a competitor of Gaussian, Inc. and that
 it will not use this program in any manner prohibited above.
 ---------------------------------------------------------------
  

 Cite this work as:
 Gaussian Development Version, Revision I.09,
 M. J. Frisch, G. W. Trucks, H. B. Schlegel, G. E. Scuseria, 
 M. A. Robb, J. R. Cheeseman, G. Scalmani, V. Barone, 
 G. A. Petersson, H. Nakatsuji, X. Li, M. Caricato, A. Marenich, 
 J. Bloino, B. G. Janesko, R. Gomperts, B. Mennucci, H. P. Hratchian, 
 J. V. Ortiz, A. F. Izmaylov, J. L. Sonnenberg, D. Williams-Young, 
 F. Ding, F. Lipparini, F. Egidi, J. Goings, B. Peng, A. Petrone, 
 T. Henderson, D. Ranasinghe, V. G. Zakrzewski, J. Gao, N. Rega, 
 G. Zheng, W. Liang, M. Hada, M. Ehara, K. Toyota, R. Fukuda, 
 J. Hasegawa, M. Ishida, T. Nakajima, Y. Honda, O. Kitao, H. Nakai, 
 T. Vreven, K. Throssell, J. A. Montgomery, Jr., J. E. Peralta, 
 F. Ogliaro, M. Bearpark, J. J. Heyd, E. Brothers, K. N. Kudin, 
 V. N. Staroverov, T. Keith, R. Kobayashi, J. Normand, 
 K. Raghavachari, A. Rendell, J. C. Burant, S. S. Iyengar, J. Tomasi, 
 M. Cossi, J. M. Millam, M. Klene, C. Adamo, R. Cammi, 
 J. W. Ochterski, R. L. Martin, K. Morokuma, O. Farkas, 
 J. B. Foresman, and D. J. Fox, Gaussian, Inc., Wallingford CT, 2016.
 
 ******************************************
 Gaussian DV:  EM64M-GDVRevI.09  1-Aug-2016
                16-Mar-2018 
 ******************************************
 %chk=z-frag1
 ----------------------------------------------------
 #p test hf/3-21g pop=full iop(1/33=3) nosymm out=mat
 ----------------------------------------------------
 1/33=3,38=1,172=1/1;
 2/12=2,15=1,17=6,18=5,40=1/2;
 3/5=5,11=9,25=1,30=1/1,2,3,8;
 4//1;
 5/5=2,38=5/2;
 6/7=3,28=1/1;
 99/5=1,6=100000,9=1/99;
 Leave Link    1 at Fri Mar 16 23:47:13 2018, MaxMem=           0 cpu:               0.0 elap:               0.0
 (Enter /Users/hhratchian/.gaussian/gdv-current/gdv/l101.exe)
 ONIOM data not found on unit 2.
 ----
 test
 ----
 TstMul:  ICh=    -1
 TstMul:  Mul=     2
 TstMul:  ICh=    -1
 TstMul:  Mul=     2
 Symbolic Z-matrix:
 Charge = -1 Multiplicity = 2
 o(frag=1)             0.        0.        0. 
 bq(frag=2)            0.        0.        1. 
 
 RdStrC is calling ZToCFu for IStruc=1 NZ=     2.
                                ZToCFu                                
 ---------------------------------------------------------------------
 Center     Atomic      Atomic             Coordinates (Angstroms)
 Number     Number       Type             X           Y           Z
 ---------------------------------------------------------------------
      1          8           0        0.000000    0.000000    0.000000
      2          0           0        0.000000    0.000000    1.000000
 ---------------------------------------------------------------------
 PrtBox:  NBox=     1 Levels=  1 BoxLen=    8.00 SMaxX=        1.89
          Shift=            0.000000            0.000000            0.000000
 Box      1 Number                   0 centers from      1 to      2:
            I=     1 IX=     1 XYZ=      1      1      1 Ind=                   0
            I=     2 IX=     2 XYZ=      1      1      1 Ind=                   0
 GenCBx connectivity:
 I=     1 IAn=  8 IBond, IBType=
 I=     2 IAn=  0 IBond, IBType=
 Connectivity in DoCon:
 I=     1 IAn=  8 IBond, RBType=
 I=     2 IAn=  0 IBond, RBType=
 After GenITR:
 ITRead=  0  0
 MicOpt= -1 -1
 Saved connectivity
 I=     1 IAn=  8 IBond, RBType=
 I=     2 IAn=  0 IBond, RBType=
 ITRead=  0  0
 MicOpt= -1 -1
 NAtoms=      2 NQM=        2 NQMF=       0 NMMI=      0 NMMIF=      0
                NMic=       0 NMicF=      0.
                    Isotopes and Nuclear Properties:
 (Nuclear quadrupole moments (NQMom) in fm**2, nuclear magnetic moments (NMagM)
  in nuclear magnetons)

  Atom         1           2
 IAtWgt=          16           0
 AtmWgt=  15.9949146   0.0000000
 NucSpn=           0           0
 AtZEff=  -0.0000000  -0.0000000
 NQMom=    0.0000000   0.0000000
 NMagM=    0.0000000   0.0000000
 AtZNuc=   8.0000000   0.0000000
 No MM parameters found.
 Leave Link  101 at Fri Mar 16 23:47:13 2018, MaxMem=   100000000 cpu:               0.2 elap:               0.2
 (Enter /Users/hhratchian/.gaussian/gdv-current/gdv/l202.exe)
                          Input orientation:                          
 ---------------------------------------------------------------------
 Center     Atomic      Atomic             Coordinates (Angstroms)
 Number     Number       Type             X           Y           Z
 ---------------------------------------------------------------------
      1          8           0        0.000000    0.000000    0.000000
      2          0           0        0.000000    0.000000    1.000000
 ---------------------------------------------------------------------
 Symmetry turned off by external request.
 Symmetry turned off:
 Cannot cope with ghost atoms or with translation vectors.
 Stoichiometry    O(1-,2)
 Framework group  C1[X(O)]
 NumDoF:  NAt=     1 NAtoms=     2
 Deg. of freedom     0
 Full point group                 C1      NOp   1
 Rotational constants (GHZ):           0.0000000           0.0000000           0.0000000
 Leave Link  202 at Fri Mar 16 23:47:13 2018, MaxMem=   100000000 cpu:               0.0 elap:               0.0
 (Enter /Users/hhratchian/.gaussian/gdv-current/gdv/l301.exe)
 Standard basis: 3-21G (6D, 7F)
 Warning:  center   2 has no basis functions!
 Ernie: Thresh=  0.10000D-02 Tol=  0.10000D-05 Strict=F.
     9 basis functions,    15 primitive gaussians,     9 cartesian basis functions
     5 alpha electrons        4 beta electrons
       nuclear repulsion energy         0.0000000000 Hartrees.
 IExCor=    0 DFT=F Ex=HF Corr=None ExCW=0 ScaHFX=  1.000000
 ScaDFX=  1.000000  1.000000  1.000000  1.000000 ScalE2=  1.000000  1.000000
 IRadAn=      5 IRanWt=     -1 IRanGd=            0 ICorTp=0 IEmpDi=  4
 NAtoms=    2 NActive=    2 NUniq=    2 SFac= 1.00D+00 NAtFMM=   60 NAOKFM=F Big=F
 Integral buffers will be    131072 words long.
 Raffenetti 2 integral format.
 Two-electron integral symmetry is turned off.
 Leave Link  301 at Fri Mar 16 23:47:13 2018, MaxMem=   100000000 cpu:               0.0 elap:               0.0
 (Enter /Users/hhratchian/.gaussian/gdv-current/gdv/l302.exe)
 NPDir=0 NMtPBC=     1 NCelOv=     1 NCel=       1 NClECP=     1 NCelD=      1
         NCelK=      1 NCelE2=     1 NClLst=     1 CellRange=     0.0.
 One-electron integrals computed using PRISM.
 NBasis=     9 RedAO= T EigKep=  2.59D-01  NBF=     9
 NBsUse=     9 1.00D-06 EigRej= -1.00D+00 NBFU=     9
 Leave Link  302 at Fri Mar 16 23:47:13 2018, MaxMem=   100000000 cpu:               0.1 elap:               0.1
 (Enter /Users/hhratchian/.gaussian/gdv-current/gdv/l303.exe)
 DipDrv:  MaxL=1.
 Leave Link  303 at Fri Mar 16 23:47:13 2018, MaxMem=   100000000 cpu:               0.0 elap:               0.0
 (Enter /Users/hhratchian/.gaussian/gdv-current/gdv/l308.exe)
 Leave Link  308 at Fri Mar 16 23:47:13 2018, MaxMem=   100000000 cpu:               0.0 elap:               0.0
 (Enter /Users/hhratchian/.gaussian/gdv-current/gdv/l401.exe)
 ExpMin= 3.74D-01 ExpMax= 3.22D+02 ExpMxC= 3.22D+02 IAcc=3 IRadAn=         5 AccDes= 0.00D+00
 Harris functional with IExCor=  205 and IRadAn=       5 diagonalized for initial guess.
 HarFok:  IExCor=  205 AccDes= 0.00D+00 IRadAn=         5 IDoV= 1 UseB2=F ITyADJ=14
 ICtDFT=  3500011 ScaDFX=  1.000000  1.000000  1.000000  1.000000
 FoFCou: FMM=F IPFlag=           0 FMFlag=      100000 FMFlg1=           0
         NFxFlg=           0 DoJE=T BraDBF=F KetDBF=T FulRan=T
         wScrn=  0.000000 ICntrl=       500 IOpCl=  0 I1Cent=   200000004 NGrid=           0
         NMat0=    1 NMatS0=      1 NMatT0=    0 NMatD0=    1 NMtDS0=    0 NMtDT0=    0
 Symmetry not used in FoFCou.
 Harris En= -74.4944214293863    
 JPrj=0 DoOrth=F DoCkMO=F.
 Initial guess <Sx>= 0.0000 <Sy>= 0.0000 <Sz>= 0.5000 <S**2>= 0.7500 S= 0.5000
 Leave Link  401 at Fri Mar 16 23:47:13 2018, MaxMem=   100000000 cpu:               0.1 elap:               0.1
 (Enter /Users/hhratchian/.gaussian/gdv-current/gdv/l502.exe)
 Keep R1 and R2 ints in memory in canonical form, NReq=803366.
 FoFCou: FMM=F IPFlag=           0 FMFlag=           0 FMFlg1=           0
         NFxFlg=           0 DoJE=F BraDBF=F KetDBF=F FulRan=T
         wScrn=  0.000000 ICntrl=       600 IOpCl=  0 I1Cent=           0 NGrid=           0
         NMat0=    1 NMatS0=     45 NMatT0=    0 NMatD0=    1 NMtDS0=    0 NMtDT0=    0
 Symmetry not used in FoFCou.
 Two-electron integral symmetry not used.
 UHF open shell SCF:
 Using DIIS extrapolation, IDIIS=  1040.
 NGot=   100000000 LenX=    99996607 LenY=    99995725
 Requested convergence on RMS density matrix=1.00D-08 within 128 cycles.
 Requested convergence on MAX density matrix=1.00D-06.
 Requested convergence on             energy=1.00D-06.
 No special actions if energy rises.

 Cycle   1  Pass 1  IDiag  1:
 E= -74.2044561850246    
 DIIS: error= 9.76D-02 at cycle   1 NSaved=   1.
 NSaved= 1 IEnMin= 1 EnMin= -74.2044561850246     IErMin= 1 ErrMin= 9.76D-02
 ErrMax= 9.76D-02  0.00D+00 EMaxC= 1.00D-01 BMatC= 4.84D-01 BMatP= 4.84D-01
 IDIUse=3 WtCom= 2.36D-02 WtEn= 9.76D-01
 Coeff-Com:  0.100D+01
 Coeff-En:   0.100D+01
 Coeff:      0.100D+01
 Gap=     2.319 Goal=   None    Shift=    0.000
 Gap=     0.695 Goal=   None    Shift=    0.000
 GapD=    0.695 DampG=2.000 DampE=0.500 DampFc=1.0000 IDamp=-1.
 RMSDP=2.56D-02 MaxDP=1.07D-01              OVMax= 7.03D-16

 Cycle   2  Pass 1  IDiag  1:
 E= -74.2653875465207     Delta-E=       -0.060931361496 Rises=F Damp=F
 DIIS: error= 3.24D-02 at cycle   2 NSaved=   2.
 NSaved= 2 IEnMin= 2 EnMin= -74.2653875465207     IErMin= 2 ErrMin= 3.24D-02
 ErrMax= 3.24D-02  0.00D+00 EMaxC= 1.00D-01 BMatC= 5.05D-02 BMatP= 4.84D-01
 IDIUse=3 WtCom= 6.76D-01 WtEn= 3.24D-01
 Coeff-Com:  0.212D+00 0.788D+00
 Coeff-En:   0.000D+00 0.100D+01
 Coeff:      0.144D+00 0.856D+00
 Gap=     2.181 Goal=   None    Shift=    0.000
 Gap=     0.635 Goal=   None    Shift=    0.000
 RMSDP=7.40D-03 MaxDP=3.22D-02 DE=-6.09D-02 OVMax= 2.88D-16

 Cycle   3  Pass 1  IDiag  1:
 E= -74.2718051267244     Delta-E=       -0.006417580204 Rises=F Damp=F
 DIIS: error= 4.95D-03 at cycle   3 NSaved=   3.
 NSaved= 3 IEnMin= 3 EnMin= -74.2718051267244     IErMin= 3 ErrMin= 4.95D-03
 ErrMax= 4.95D-03  0.00D+00 EMaxC= 1.00D-01 BMatC= 7.61D-04 BMatP= 5.05D-02
 IDIUse=3 WtCom= 9.50D-01 WtEn= 4.95D-02
 Coeff-Com: -0.169D-01 0.684D-01 0.949D+00
 Coeff-En:   0.000D+00 0.000D+00 0.100D+01
 Coeff:     -0.161D-01 0.650D-01 0.951D+00
 Gap=     2.185 Goal=   None    Shift=    0.000
 Gap=     0.631 Goal=   None    Shift=    0.000
 RMSDP=8.84D-04 MaxDP=4.63D-03 DE=-6.42D-03 OVMax= 3.36D-16

 Cycle   4  Pass 1  IDiag  1:
 E= -74.2719331082736     Delta-E=       -0.000127981549 Rises=F Damp=F
 DIIS: error= 5.10D-04 at cycle   4 NSaved=   4.
 NSaved= 4 IEnMin= 4 EnMin= -74.2719331082736     IErMin= 4 ErrMin= 5.10D-04
 ErrMax= 5.10D-04  0.00D+00 EMaxC= 1.00D-01 BMatC= 7.89D-06 BMatP= 7.61D-04
 IDIUse=3 WtCom= 9.95D-01 WtEn= 5.10D-03
 Coeff-Com:  0.498D-02-0.317D-01-0.325D+00 0.135D+01
 Coeff-En:   0.000D+00 0.000D+00 0.000D+00 0.100D+01
 Coeff:      0.495D-02-0.316D-01-0.323D+00 0.135D+01
 Gap=     2.185 Goal=   None    Shift=    0.000
 Gap=     0.630 Goal=   None    Shift=    0.000
 RMSDP=1.49D-04 MaxDP=8.39D-04 DE=-1.28D-04 OVMax= 7.71D-16

 Cycle   5  Pass 1  IDiag  1:
 E= -74.2719354633725     Delta-E=       -0.000002355099 Rises=F Damp=F
 DIIS: error= 1.07D-04 at cycle   5 NSaved=   5.
 NSaved= 5 IEnMin= 5 EnMin= -74.2719354633725     IErMin= 5 ErrMin= 1.07D-04
 ErrMax= 1.07D-04  0.00D+00 EMaxC= 1.00D-01 BMatC= 4.64D-07 BMatP= 7.89D-06
 IDIUse=3 WtCom= 9.99D-01 WtEn= 1.07D-03
 Coeff-Com: -0.260D-02 0.188D-01 0.176D+00-0.894D+00 0.170D+01
 Coeff-En:   0.000D+00 0.000D+00 0.000D+00 0.000D+00 0.100D+01
 Coeff:     -0.260D-02 0.187D-01 0.176D+00-0.893D+00 0.170D+01
 Gap=     2.185 Goal=   None    Shift=    0.000
 Gap=     0.630 Goal=   None    Shift=    0.000
 RMSDP=5.11D-05 MaxDP=2.23D-04 DE=-2.36D-06 OVMax= 1.40D-15

 Cycle   6  Pass 1  IDiag  1:
 E= -74.2719356371526     Delta-E=       -0.000000173780 Rises=F Damp=F
 DIIS: error= 9.57D-06 at cycle   6 NSaved=   6.
 NSaved= 6 IEnMin= 6 EnMin= -74.2719356371526     IErMin= 6 ErrMin= 9.57D-06
 ErrMax= 9.57D-06  0.00D+00 EMaxC= 1.00D-01 BMatC= 1.40D-09 BMatP= 4.64D-07
 IDIUse=1 WtCom= 1.00D+00 WtEn= 0.00D+00
 Coeff-Com:  0.115D-02-0.832D-02-0.782D-01 0.398D+00-0.768D+00 0.146D+01
 Coeff:      0.115D-02-0.832D-02-0.782D-01 0.398D+00-0.768D+00 0.146D+01
 Gap=     2.185 Goal=   None    Shift=    0.000
 Gap=     0.630 Goal=   None    Shift=    0.000
 RMSDP=2.25D-06 MaxDP=1.35D-05 DE=-1.74D-07 OVMax= 5.92D-16

 Cycle   7  Pass 1  IDiag  1:
 E= -74.2719356376287     Delta-E=       -0.000000000476 Rises=F Damp=F
 DIIS: error= 6.27D-07 at cycle   7 NSaved=   7.
 NSaved= 7 IEnMin= 7 EnMin= -74.2719356376287     IErMin= 7 ErrMin= 6.27D-07
 ErrMax= 6.27D-07  0.00D+00 EMaxC= 1.00D-01 BMatC= 1.02D-11 BMatP= 1.40D-09
 IDIUse=1 WtCom= 1.00D+00 WtEn= 0.00D+00
 Coeff-Com: -0.530D-04 0.366D-03 0.353D-02-0.180D-01 0.347D-01-0.126D+00
 Coeff-Com:  0.111D+01
 Coeff:     -0.530D-04 0.366D-03 0.353D-02-0.180D-01 0.347D-01-0.126D+00
 Coeff:      0.111D+01
 Gap=     2.185 Goal=   None    Shift=    0.000
 Gap=     0.630 Goal=   None    Shift=    0.000
 RMSDP=1.71D-07 MaxDP=9.35D-07 DE=-4.76D-10 OVMax= 7.41D-16

 Cycle   8  Pass 1  IDiag  1:
 E= -74.2719356376316     Delta-E=       -0.000000000003 Rises=F Damp=F
 DIIS: error= 4.66D-08 at cycle   8 NSaved=   8.
 NSaved= 8 IEnMin= 8 EnMin= -74.2719356376316     IErMin= 8 ErrMin= 4.66D-08
 ErrMax= 4.66D-08  0.00D+00 EMaxC= 1.00D-01 BMatC= 8.41D-14 BMatP= 1.02D-11
 IDIUse=1 WtCom= 1.00D+00 WtEn= 0.00D+00
 Coeff-Com:  0.369D-06 0.138D-05-0.106D-04 0.495D-04-0.178D-03 0.126D-01
 Coeff-Com: -0.229D+00 0.122D+01
 Coeff:      0.369D-06 0.138D-05-0.106D-04 0.495D-04-0.178D-03 0.126D-01
 Coeff:     -0.229D+00 0.122D+01
 Gap=     2.185 Goal=   None    Shift=    0.000
 Gap=     0.630 Goal=   None    Shift=    0.000
 RMSDP=1.56D-08 MaxDP=6.68D-08 DE=-2.86D-12 OVMax= 5.96D-16

 Cycle   9  Pass 1  IDiag  1:
 E= -74.2719356376316     Delta-E=       -0.000000000000 Rises=F Damp=F
 DIIS: error= 1.56D-10 at cycle   9 NSaved=   9.
 NSaved= 9 IEnMin= 9 EnMin= -74.2719356376316     IErMin= 9 ErrMin= 1.56D-10
 ErrMax= 1.56D-10  0.00D+00 EMaxC= 1.00D-01 BMatC= 5.47D-19 BMatP= 8.41D-14
 IDIUse=1 WtCom= 1.00D+00 WtEn= 0.00D+00
 Coeff-Com: -0.156D-07-0.659D-07 0.411D-06-0.173D-05 0.673D-05-0.521D-03
 Coeff-Com:  0.951D-02-0.502D-01 0.104D+01
 Coeff:     -0.156D-07-0.659D-07 0.411D-06-0.173D-05 0.673D-05-0.521D-03
 Coeff:      0.951D-02-0.502D-01 0.104D+01
 Gap=     2.185 Goal=   None    Shift=    0.000
 Gap=     0.630 Goal=   None    Shift=    0.000
 RMSDP=1.95D-11 MaxDP=1.21D-10 DE=-2.84D-14 OVMax= 4.53D-16

 SCF Done:  E(UHF) =  -74.2719356376     A.U. after    9 cycles
            NFock=  9  Conv=0.20D-10     -V/T= 1.9949
 <Sx>= 0.0000 <Sy>= 0.0000 <Sz>= 0.5000 <S**2>= 0.7503 S= 0.5001
 <L.S>= 0.000000000000E+00
 KE= 7.465085177262D+01 PE=-1.822867057330D+02 EE= 3.336391832272D+01
 Annihilation of the first spin contaminant:
 S**2 before annihilation     0.7503,   after     0.7500
 Leave Link  502 at Fri Mar 16 23:47:13 2018, MaxMem=   100000000 cpu:               0.1 elap:               0.1
 (Enter /Users/hhratchian/.gaussian/gdv-current/gdv/l601.exe)
 Copying SCF densities to generalized density rwf, IOpCl= 1 IROHF=0.

 **********************************************************************

            Population analysis using the SCF Density.

 **********************************************************************

 Alpha  occ. eigenvalues --  -19.87762  -0.73144  -0.05808   0.02358   0.02358
 Alpha virt. eigenvalues --    2.20814   2.27726   2.27726   3.04112
  Beta  occ. eigenvalues --  -19.84783  -0.57362   0.06670   0.06670
  Beta virt. eigenvalues --    0.69656   2.30270   2.30270   2.40933   3.10082
     Alpha Molecular Orbital Coefficients:
                           1         2         3         4         5
                           O         O         O         O         O
     Eigenvalues --   -19.87762  -0.73144  -0.05808   0.02358   0.02358
   1 1   O  1S          0.98248  -0.25187  -0.00000  -0.00000   0.00000
   2        2S          0.09143   0.22679  -0.00000  -0.00000   0.00000
   3        2PX        -0.00000  -0.00000   0.01841  -0.27229   0.40977
   4        2PY         0.00000  -0.00000  -0.10255   0.39944   0.26982
   5        2PZ        -0.00000  -0.00000   0.49347   0.09317   0.04078
   6        3S         -0.02380   0.83946   0.00000   0.00000  -0.00000
   7        3PX         0.00000   0.00000   0.02365  -0.36439   0.54837
   8        3PY        -0.00000   0.00000  -0.13172   0.53455   0.36108
   9        3PZ         0.00000  -0.00000   0.63387   0.12468   0.05457
                           6         7         8         9
                           V         V         V         V
     Eigenvalues --     2.20814   2.27726   2.27726   3.04112
   1 1   O  1S         -0.00000   0.00000  -0.00000  -0.13784
   2        2S         -0.00000  -0.00000   0.00000   1.47600
   3        2PX         0.03789  -0.64214   0.82157  -0.00000
   4        2PY        -0.21098   0.80015   0.63524   0.00000
   5        2PZ         1.01530   0.19024   0.10135   0.00000
   6        3S          0.00000   0.00000  -0.00000  -1.22857
   7        3PX        -0.03486   0.58288  -0.74574   0.00000
   8        3PY         0.19411  -0.72630  -0.57661  -0.00000
   9        3PZ        -0.93411  -0.17268  -0.09200  -0.00000
     Beta Molecular Orbital Coefficients:
                           1         2         3         4         5
                           O         O         O         O         V
     Eigenvalues --   -19.84783  -0.57362   0.06670   0.06670   0.69656
   1 1   O  1S          0.98306  -0.24878  -0.00000   0.00000   0.00000
   2        2S          0.08959   0.21262   0.00000  -0.00000   0.00000
   3        2PX        -0.00000  -0.00000  -0.14277   0.46101   0.01386
   4        2PY         0.00000   0.00000   0.45061   0.14330  -0.07720
   5        2PZ        -0.00000   0.00000   0.09897   0.01258   0.37149
   6        3S         -0.02410   0.85129  -0.00000   0.00000  -0.00000
   7        3PX         0.00000   0.00000  -0.19727   0.63702   0.02756
   8        3PY        -0.00000   0.00000   0.62264   0.19801  -0.15349
   9        3PZ         0.00000  -0.00000   0.13675   0.01738   0.73864
                           6         7         8         9
                           V         V         V         V
     Eigenvalues --     2.30270   2.30270   2.40933   3.10082
   1 1   O  1S          0.00000  -0.00000  -0.00000  -0.13931
   2        2S          0.00000  -0.00000   0.00000   1.47822
   3        2PX         0.68036   0.79597   0.03978  -0.00000
   4        2PY         0.78490  -0.66065  -0.22152  -0.00000
   5        2PZ         0.13772  -0.16699   1.06599  -0.00000
   6        3S         -0.00000  -0.00000   0.00000  -1.22039
   7        3PX        -0.61112  -0.71498  -0.03185   0.00000
   8        3PY        -0.70503   0.59343   0.17740   0.00000
   9        3PZ        -0.12371   0.15000  -0.85367   0.00000
     Alpha Density Matrix:
                           1         2         3         4         5
   1 1   O  1S          1.02871
   2        2S          0.03271   0.05979
   3        2PX        -0.00000  -0.00000   0.24239
   4        2PY         0.00000  -0.00000  -0.00009   0.24287
   5        2PZ        -0.00000  -0.00000   0.00043  -0.00239   0.25386
   6        3S         -0.23481   0.18820  -0.00000  -0.00000   0.00000
   7        3PX         0.00000   0.00000   0.32436  -0.00002   0.00009
   8        3PY        -0.00000  -0.00000  -0.00002   0.32446  -0.00047
   9        3PZ         0.00000  -0.00000   0.00009  -0.00047   0.32664
                           6         7         8         9
   6        3S          0.70526
   7        3PX         0.00000   0.43405
   8        3PY         0.00000   0.00011   0.43347
   9        3PZ         0.00000  -0.00051   0.00286   0.42031
     Beta Density Matrix:
                           1         2         3         4         5
   1 1   O  1S          1.02830
   2        2S          0.03518   0.05323
   3        2PX        -0.00000  -0.00000   0.23291
   4        2PY         0.00000   0.00000   0.00173   0.22358
   5        2PZ        -0.00000   0.00000  -0.00833   0.04640   0.00995
   6        3S         -0.23547   0.17884  -0.00000  -0.00000   0.00000
   7        3PX         0.00000   0.00000   0.32184   0.00239  -0.01151
   8        3PY        -0.00000  -0.00000   0.00239   0.30894   0.06411
   9        3PZ         0.00000  -0.00000  -0.01151   0.06411   0.01375
                           6         7         8         9
   6        3S          0.72528
   7        3PX         0.00000   0.44471
   8        3PY        -0.00000   0.00331   0.42689
   9        3PZ        -0.00000  -0.01591   0.08859   0.01900
    Full Mulliken population analysis:
                           1         2         3         4         5
   1 1   O  1S          2.05701
   2        2S          0.01420   0.11302
   3        2PX         0.00000   0.00000   0.47531
   4        2PY         0.00000   0.00000   0.00000   0.46645
   5        2PZ         0.00000   0.00000   0.00000   0.00000   0.26381
   6        3S         -0.08610   0.27162   0.00000   0.00000   0.00000
   7        3PX         0.00000   0.00000   0.32230   0.00000   0.00000
   8        3PY         0.00000   0.00000   0.00000   0.31592   0.00000
   9        3PZ         0.00000   0.00000   0.00000   0.00000   0.16977
                           6         7         8         9
   6        3S          1.43053
   7        3PX         0.00000   0.87876
   8        3PY         0.00000   0.00000   0.86037
   9        3PZ         0.00000   0.00000   0.00000   0.43931
     Gross orbital populations:
                         Total     Alpha     Beta      Spin
   1 1   O  1S          1.98511   0.99256   0.99255   0.00001
   2        2S          0.39885   0.20591   0.19294   0.01297
   3        2PX         0.79761   0.40417   0.39344   0.01074
   4        2PY         0.78237   0.40470   0.37767   0.02702
   5        2PZ         0.43358   0.41677   0.01681   0.39996
   6        3S          1.61605   0.80154   0.81451  -0.01297
   7        3PX         1.20106   0.59583   0.60523  -0.00940
   8        3PY         1.17629   0.59530   0.58099   0.01432
   9        3PZ         0.60909   0.58323   0.02586   0.55737
          Condensed to atoms (all electrons):
               1          2
     1  O    9.000000   0.000000
     2  Bq   0.000000   0.000000
          Atomic-Atomic Spin Densities.
               1          2
     1  O    1.000000   0.000000
     2  Bq   0.000000   0.000000
 Mulliken charges and spin densities:
               1          2
     1  O   -1.000000   1.000000
     2  Bq   0.000000   0.000000
 Sum of Mulliken charges =  -1.00000   1.00000
 Mulliken charges and spin densities with hydrogens summed into heavy atoms:
               1          2
     1  O   -1.000000   1.000000
     2  Bq   0.000000   0.000000
         Mulliken charges and spin densities condensed to fragments:
      1     -1.000000      1.000000
      2      0.000000      0.000000
 Electronic spatial extent (au):  <R**2>=             13.5344
 Charge=             -1.0000 electrons
 Dipole moment (field-independent basis, Debye):
    X=             -0.0000    Y=             -0.0000    Z=              0.0000  Tot=              0.0000
 Quadrupole moment (field-independent basis, Debye-Ang):
   XX=             -6.4382   YY=             -6.3936   ZZ=             -5.3725
   XY=             -0.0083   XZ=              0.0398   YZ=             -0.2218
 Traceless Quadrupole moment (field-independent basis, Debye-Ang):
   XX=             -0.3701   YY=             -0.3255   ZZ=              0.6956
   XY=             -0.0083   XZ=              0.0398   YZ=             -0.2218
 Octapole moment (field-independent basis, Debye-Ang**2):
  XXX=             -0.0000  YYY=             -0.0000  ZZZ=              0.0000  XYY=             -0.0000
  XXY=             -0.0000  XXZ=              0.0000  XZZ=             -0.0000  YZZ=             -0.0000
  YYZ=              0.0000  XYZ=              0.0000
 Hexadecapole moment (field-independent basis, Debye-Ang**3):
 XXXX=             -4.0155 YYYY=             -3.9740 ZZZZ=             -3.0226 XXXY=             -0.0039
 XXXZ=              0.0186 YYYX=             -0.0039 YYYZ=             -0.1033 ZZZX=              0.0186
 ZZZY=             -0.1033 XXYY=             -1.3316 XXZZ=             -1.1730 YYZZ=             -1.1661
 XXYZ=             -0.0344 YYXZ=              0.0062 ZZXY=             -0.0013
 N-N= 0.000000000000D+00 E-N=-1.822867057342D+02  KE= 7.465085177262D+01
 Orbital energies and kinetic energies (alpha):
                                 1                 2
   1         O               -19.877619         28.910477
   2         O                -0.731436          2.961626
   3         O                -0.058077          2.250697
   4         O                 0.023585          2.196311
   5         O                 0.023585          2.196311
   6         V                 2.208145          5.105527
   7         V                 2.277260          5.159912
   8         V                 2.277260          5.159912
   9         V                 3.041115          6.361409
 Orbital energies and kinetic energies (beta):
                                 1                 2
   1         O               -19.847827         28.954198
   2         O                -0.573619          2.871910
   3         O                 0.066696          2.154661
   4         O                 0.066696          2.154661
   5         V                 0.696558          1.740214
   6         V                 2.302704          5.201563
   7         V                 2.302704          5.201563
   8         V                 2.409325          5.616010
   9         V                 3.100822          6.407404
 Total kinetic energy from orbitals= 7.465085177262D+01
                          Isotropic Fermi Contact Couplings
        Atom                 a.u.       MegaHertz       Gauss      10(-4) cm-1
     1  O(17)              0.05251     -31.82862     -11.35724     -10.61688
 --------------------------------------------------------
       Center         ----  Spin Dipole Couplings  ----
                      3XX-RR        3YY-RR        3ZZ-RR
 --------------------------------------------------------
     1   Atom       -1.423255     -1.251748      2.675003
     2   Atom       -0.154226     -0.151340      0.305565
 --------------------------------------------------------
                        XY            XZ            YZ
 --------------------------------------------------------
     1   Atom       -0.031823      0.153137     -0.852824
     2   Atom       -0.000536     -0.007067      0.039356
 --------------------------------------------------------


 ---------------------------------------------------------------------------------
              Anisotropic Spin Dipole Couplings in Principal Axis System
 ---------------------------------------------------------------------------------

       Atom             a.u.   MegaHertz   Gauss  10(-4) cm-1        Axes

              Baa    -1.4290   103.399    36.895    34.490  0.0355  0.9787  0.2021
     1 O(17)  Bbb    -1.4290   103.399    36.895    34.490  0.9987 -0.0274 -0.0430
              Bcc     2.8579  -206.798   -73.791   -68.981  0.0365 -0.2033  0.9784
 

 ---------------------------------------------------------------------------------

 No NMR shielding tensors so no spin-rotation constants.
 Leave Link  601 at Fri Mar 16 23:47:14 2018, MaxMem=   100000000 cpu:               0.2 elap:               0.2
 (Enter /Users/hhratchian/.gaussian/gdv-current/gdv/l9999.exe)

 Test job not archived.
 1\1\GINC-STCLAIR2\SP\UHF\3-21G\O1(1-,2)\HHRATCHIAN\16-Mar-2018\0\\#p t
 est hf/3-21g pop=full iop(1/33=3) nosymm out=mat\\test\\-1,2\O,0,0.,0.
 ,0.\Bq,0,0.,0.,1.\\Version=EM64M-GDVRevI.10+\HF=-74.2719356\S2=0.75025
 6\S2-1=0.\S2A=0.75\RMSD=1.951e-11\Dipole=0.,0.,0.\Quadrupole=-0.275154
 4,-0.2419974,0.5171518,-0.0061522,0.0296055,-0.1648744\PG=C01 [X(O1)]\
 \@


 THERE'S A SUCKER BORN EVERY MINUTE

              -- PHINEAS TAYLOR (P.T.) BARNUM

 Writing WrtUnf unformatted file "z-frag1.mat"
 Gaussian matrix elements                                         Version   2 NLab=11 Len12L=8 Len4L=8
 Write SHELL TO ATOM MAP                   from file     0 offset           0 length                   3 to matrix element file.
 Write SHELL TYPES                         from file     0 offset           0 length                   3 to matrix element file.
 Write NUMBER OF PRIMITIVES PER SHELL      from file     0 offset           0 length                   3 to matrix element file.
 Write PRIMITIVE EXPONENTS                 from file     0 offset           0 length                   6 to matrix element file.
 Write CONTRACTION COEFFICIENTS            from file     0 offset           0 length                   6 to matrix element file.
 Write P(S=P) CONTRACTION COEFFICIENTS     from file     0 offset           0 length                   6 to matrix element file.
 Write COORDINATES OF EACH SHELL           from file     0 offset           0 length                   9 to matrix element file.
 Write GAUSSIAN SCALARS                    from file   501 offset           0 to matrix element file.
 Write INTEGER ISO                         from file     0 offset           0 length                   2 to matrix element file.
 Write INTEGER FRAGMENT                    from file     0 offset           0 length                   2 to matrix element file.
 Write REAL ZEFFECTIVE                     from file     0 offset           0 length                   2 to matrix element file.
 Write REAL ZNUCLEAR                       from file     0 offset           0 length                   2 to matrix element file.
 Write MULLIKEN CHARGES                    from file     0 offset           0 length                   2 to matrix element file.
 Write NUCLEAR GRADIENT                    from file 10584 offset           0 length                   6 to matrix element file.
 Array NUCLEAR FORCE CONSTANTS              on  file 10585 does not exist.
 Write ELECTRIC DIPOLE MOMENT              from file     0 offset           0 length                   3 to matrix element file.
 Write NON-ADIABATIC COUPLING              from file 10810 offset           0 length                   6 to matrix element file.
 Write OVERLAP                             from file 10514 offset           0 length                  45 to matrix element file.
 Write CORE HAMILTONIAN ALPHA              from file 10515 offset           0 length                  45 to matrix element file.
 Write CORE HAMILTONIAN BETA               from file 10515 offset          45 length                  45 to matrix element file.
 Write KINETIC ENERGY                      from file 10516 offset           0 length                  45 to matrix element file.
 Write ORTHOGONAL BASIS                    from file 10685 offset           0 length                  81 to matrix element file.
 Write DIPOLE INTEGRALS                    from file 10518 offset           0 length                 135 to matrix element file.
 Write DIP VEL INTEGRALS                   from file 10572 offset           0 length                 135 to matrix element file.
 Write R X DEL INTEGRALS                   from file 10572 offset         135 length                 135 to matrix element file.
 Write ALPHA ORBITAL ENERGIES              from file     0 offset           0 length                   9 to matrix element file.
 Write BETA ORBITAL ENERGIES               from file     0 offset           0 length                   9 to matrix element file.
 Write ALPHA MO COEFFICIENTS               from file 10524 offset           0 length                  81 to matrix element file.
 Write BETA MO COEFFICIENTS                from file 10526 offset           0 length                  81 to matrix element file.
 Write ALPHA DENSITY MATRIX                from file 10528 offset           0 length                  45 to matrix element file.
 Write BETA DENSITY MATRIX                 from file 10530 offset           0 length                  45 to matrix element file.
 Write ALPHA SCF DENSITY MATRIX            from file 10528 offset           0 length                  45 to matrix element file.
 Write BETA SCF DENSITY MATRIX             from file 10530 offset           0 length                  45 to matrix element file.
 Write ALPHA FOCK MATRIX                   from file 10536 offset           0 length                  45 to matrix element file.
 Write BETA FOCK MATRIX                    from file 10538 offset           0 length                  45 to matrix element file.
 Write ALPHA SCF DENSITY                   from file     0 offset           0 length                  45 to matrix element file.
 Write BETA SCF DENSITY                    from file     0 offset           0 length                  45 to matrix element file.
 No 2e integrals to process.
 Job cpu time:       0 days  0 hours  0 minutes  1.1 seconds.
 Elapsed time:       0 days  0 hours  0 minutes  1.0 seconds.
 File lengths (MBytes):  RWF=      6 Int=      0 D2E=      0 Chk=      1 Scr=      1
 Normal termination of Gaussian DV at Fri Mar 16 23:47:14 2018.
