 Entering Gaussian System, Link 0=gdv
 Initial command:
 /Users/hhratchian/gauss/exe-dir/l1.exe "/Users/hhratchian/.scratch/Gau-64960.inp" -scrdir="/Users/hhratchian/.scratch/" -exedir="/Users/hhratchian/gauss:/Users/hhratchian/gauss/exe-dir:/Users/hhratchian/.gaussian/gdv-current/gdv/bsd:/Users/hhratchian/.gaussian/gdv-current/gdv/local:/Users/hhratchian/.gaussian/gdv-current/gdv/extras:/Users/hhratchian/.gaussian/gdv-current/gdv"
 Entering Link 1 = /Users/hhratchian/gauss/exe-dir/l1.exe PID=     64961.
  
 Copyright (c) 1988,1990,1992,1993,1995,1998,2003,2009,2016,
            Gaussian, Inc.  All Rights Reserved.
  
 This is the private, development version of
 the Gaussian(R) DV system of programs. It is based on
 the Gaussian(R) 09 system (copyright 2009, Gaussian, Inc.),
 the Gaussian(R) 03 system (copyright 2003, Gaussian, Inc.),
 the Gaussian(R) 98 system (copyright 1998, Gaussian, Inc.),
 the Gaussian(R) 94 system (copyright 1995, Gaussian, Inc.),
 the Gaussian 92(TM) system (copyright 1992, Gaussian, Inc.),
 the Gaussian 90(TM) system (copyright 1990, Gaussian, Inc.),
 the Gaussian 88(TM) system (copyright 1988, Gaussian, Inc.),
 the Gaussian 86(TM) system (copyright 1986, Carnegie Mellon
 University), and the Gaussian 82(TM) system (copyright 1983,
 Carnegie Mellon University). Gaussian is a federally registered
 trademark of Gaussian, Inc.
  
 This software contains proprietary and confidential information,
 including trade secrets, belonging to Gaussian, Inc.
  
 This software is provided under written license and may be
 used, copied, transmitted, or stored only in accord with that
 written license.
  
 The following legend is applicable only to US Government
 contracts under FAR:
  
                    RESTRICTED RIGHTS LEGEND
  
 Use, reproduction and disclosure by the US Government is
 subject to restrictions as set forth in subparagraphs (a)
 and (c) of the Commercial Computer Software - Restricted
 Rights clause in FAR 52.227-19.
  
 Gaussian, Inc.
 340 Quinnipiac St., Bldg. 40, Wallingford CT 06492
  
  
 ---------------------------------------------------------------
 Warning -- This program may not be used in any manner that
 competes with the business of Gaussian, Inc. or will provide
 assistance to any competitor of Gaussian, Inc.  The licensee
 of this program is prohibited from giving any competitor of
 Gaussian, Inc. access to this program.  By using this program,
 the user acknowledges that Gaussian, Inc. is engaged in the
 business of creating and licensing software in the field of
 computational chemistry and represents and warrants to the
 licensee that it is not a competitor of Gaussian, Inc. and that
 it will not use this program in any manner prohibited above.
 ---------------------------------------------------------------
  

 Cite this work as:
 Gaussian Development Version, Revision I.09,
 M. J. Frisch, G. W. Trucks, H. B. Schlegel, G. E. Scuseria, 
 M. A. Robb, J. R. Cheeseman, G. Scalmani, V. Barone, 
 G. A. Petersson, H. Nakatsuji, X. Li, M. Caricato, A. Marenich, 
 J. Bloino, B. G. Janesko, R. Gomperts, B. Mennucci, H. P. Hratchian, 
 J. V. Ortiz, A. F. Izmaylov, J. L. Sonnenberg, D. Williams-Young, 
 F. Ding, F. Lipparini, F. Egidi, J. Goings, B. Peng, A. Petrone, 
 T. Henderson, D. Ranasinghe, V. G. Zakrzewski, J. Gao, N. Rega, 
 G. Zheng, W. Liang, M. Hada, M. Ehara, K. Toyota, R. Fukuda, 
 J. Hasegawa, M. Ishida, T. Nakajima, Y. Honda, O. Kitao, H. Nakai, 
 T. Vreven, K. Throssell, J. A. Montgomery, Jr., J. E. Peralta, 
 F. Ogliaro, M. Bearpark, J. J. Heyd, E. Brothers, K. N. Kudin, 
 V. N. Staroverov, T. Keith, R. Kobayashi, J. Normand, 
 K. Raghavachari, A. Rendell, J. C. Burant, S. S. Iyengar, J. Tomasi, 
 M. Cossi, J. M. Millam, M. Klene, C. Adamo, R. Cammi, 
 J. W. Ochterski, R. L. Martin, K. Morokuma, O. Farkas, 
 J. B. Foresman, and D. J. Fox, Gaussian, Inc., Wallingford CT, 2016.
 
 ******************************************
 Gaussian DV:  EM64M-GDVRevI.09  1-Aug-2016
                16-Mar-2018 
 ******************************************
 %chk=z-frag2
 ----------------------------------------
 #p test hf/3-21g pop=full nosymm out=mat
 ----------------------------------------
 1/38=1,172=1/1;
 2/12=2,15=1,17=6,18=5,40=1/2;
 3/5=5,11=9,25=1,30=1/1,2,3,8;
 4//1;
 5/5=2,38=5/2;
 6/7=3,28=1/1;
 99/5=1,6=100000,9=1/99;
 Leave Link    1 at Fri Mar 16 23:47:14 2018, MaxMem=           0 cpu:               0.0 elap:               0.0
 (Enter /Users/hhratchian/.gaussian/gdv-current/gdv/l101.exe)
 ----
 test
 ----
 Symbolic Z-matrix:
 Charge =  0 Multiplicity = 2
 bq(frag=1)            0.        0.        0. 
 h(frag=2)             0.        0.        1. 
 
 ITRead=  0  0
 MicOpt= -1 -1
 NAtoms=      2 NQM=        2 NQMF=       0 NMMI=      0 NMMIF=      0
                NMic=       0 NMicF=      0.
                    Isotopes and Nuclear Properties:
 (Nuclear quadrupole moments (NQMom) in fm**2, nuclear magnetic moments (NMagM)
  in nuclear magnetons)

  Atom         1           2
 IAtWgt=           0           1
 AtmWgt=   0.0000000   1.0078250
 NucSpn=           0           1
 AtZEff=  -0.0000000  -0.0000000
 NQMom=    0.0000000   0.0000000
 NMagM=    0.0000000   2.7928460
 AtZNuc=   0.0000000   1.0000000
 Leave Link  101 at Fri Mar 16 23:47:14 2018, MaxMem=   100000000 cpu:               0.2 elap:               0.2
 (Enter /Users/hhratchian/.gaussian/gdv-current/gdv/l202.exe)
                          Input orientation:                          
 ---------------------------------------------------------------------
 Center     Atomic      Atomic             Coordinates (Angstroms)
 Number     Number       Type             X           Y           Z
 ---------------------------------------------------------------------
      1          0           0        0.000000    0.000000    0.000000
      2          1           0        0.000000    0.000000    1.000000
 ---------------------------------------------------------------------
 Symmetry turned off by external request.
 Symmetry turned off:
 Cannot cope with ghost atoms or with translation vectors.
 Stoichiometry    H(2)
 Framework group  C1[X(H)]
 NumDoF:  NAt=     1 NAtoms=     2
 Deg. of freedom     0
 Full point group                 C1      NOp   1
 Rotational constants (GHZ):           0.0000000           0.0000000           0.0000000
 Leave Link  202 at Fri Mar 16 23:47:14 2018, MaxMem=   100000000 cpu:               0.0 elap:               0.0
 (Enter /Users/hhratchian/.gaussian/gdv-current/gdv/l301.exe)
 Standard basis: 3-21G (6D, 7F)
 Warning:  center   1 has no basis functions!
 Ernie: Thresh=  0.10000D-02 Tol=  0.10000D-05 Strict=F.
     2 basis functions,     3 primitive gaussians,     2 cartesian basis functions
     1 alpha electrons        0 beta electrons
       nuclear repulsion energy         0.0000000000 Hartrees.
 IExCor=    0 DFT=F Ex=HF Corr=None ExCW=0 ScaHFX=  1.000000
 ScaDFX=  1.000000  1.000000  1.000000  1.000000 ScalE2=  1.000000  1.000000
 IRadAn=      5 IRanWt=     -1 IRanGd=            0 ICorTp=0 IEmpDi=  4
 NAtoms=    2 NActive=    2 NUniq=    2 SFac= 1.00D+00 NAtFMM=   60 NAOKFM=F Big=F
 Integral buffers will be    131072 words long.
 Raffenetti 2 integral format.
 Two-electron integral symmetry is turned off.
 Leave Link  301 at Fri Mar 16 23:47:15 2018, MaxMem=   100000000 cpu:               0.1 elap:               0.1
 (Enter /Users/hhratchian/.gaussian/gdv-current/gdv/l302.exe)
 NPDir=0 NMtPBC=     1 NCelOv=     1 NCel=       1 NClECP=     1 NCelD=      1
         NCelK=      1 NCelE2=     1 NClLst=     1 CellRange=     0.0.
 One-electron integrals computed using PRISM.
 NBasis=     2 RedAO= T EigKep=  3.54D-01  NBF=     2
 NBsUse=     2 1.00D-06 EigRej= -1.00D+00 NBFU=     2
 Leave Link  302 at Fri Mar 16 23:47:15 2018, MaxMem=   100000000 cpu:               0.1 elap:               0.1
 (Enter /Users/hhratchian/.gaussian/gdv-current/gdv/l303.exe)
 DipDrv:  MaxL=1.
 Leave Link  303 at Fri Mar 16 23:47:15 2018, MaxMem=   100000000 cpu:               0.0 elap:               0.0
 (Enter /Users/hhratchian/.gaussian/gdv-current/gdv/l308.exe)
 Leave Link  308 at Fri Mar 16 23:47:15 2018, MaxMem=   100000000 cpu:               0.0 elap:               0.0
 (Enter /Users/hhratchian/.gaussian/gdv-current/gdv/l401.exe)
 ExpMin= 1.83D-01 ExpMax= 5.45D+00 ExpMxC= 5.45D+00 IAcc=3 IRadAn=         5 AccDes= 0.00D+00
 Harris functional with IExCor=  205 and IRadAn=       5 diagonalized for initial guess.
 HarFok:  IExCor=  205 AccDes= 0.00D+00 IRadAn=         5 IDoV= 1 UseB2=F ITyADJ=14
 ICtDFT=  3500011 ScaDFX=  1.000000  1.000000  1.000000  1.000000
 FoFCou: FMM=F IPFlag=           0 FMFlag=      100000 FMFlg1=           0
         NFxFlg=           0 DoJE=T BraDBF=F KetDBF=T FulRan=T
         wScrn=  0.000000 ICntrl=       500 IOpCl=  0 I1Cent=   200000004 NGrid=           0
         NMat0=    1 NMatS0=      1 NMatT0=    0 NMatD0=    1 NMtDS0=    0 NMtDT0=    0
 Symmetry not used in FoFCou.
 Harris En=-0.454261626314638    
 JPrj=0 DoOrth=F DoCkMO=F.
 Initial guess <Sx>= 0.0000 <Sy>= 0.0000 <Sz>= 0.5000 <S**2>= 0.7500 S= 0.5000
 Leave Link  401 at Fri Mar 16 23:47:15 2018, MaxMem=   100000000 cpu:               0.1 elap:               0.1
 (Enter /Users/hhratchian/.gaussian/gdv-current/gdv/l502.exe)
 Keep R1 and R2 ints in memory in canonical form, NReq=800709.
 FoFCou: FMM=F IPFlag=           0 FMFlag=           0 FMFlg1=           0
         NFxFlg=           0 DoJE=F BraDBF=F KetDBF=F FulRan=T
         wScrn=  0.000000 ICntrl=       600 IOpCl=  0 I1Cent=           0 NGrid=           0
         NMat0=    1 NMatS0=      3 NMatT0=    0 NMatD0=    1 NMtDS0=    0 NMtDT0=    0
 Symmetry not used in FoFCou.
 Two-electron integral symmetry not used.
 UHF open shell SCF:
 Using DIIS extrapolation, IDIIS=  1040.
 NGot=   100000000 LenX=    99998672 LenY=    99997790
 Requested convergence on RMS density matrix=1.00D-08 within 128 cycles.
 Requested convergence on MAX density matrix=1.00D-06.
 Requested convergence on             energy=1.00D-06.
 No special actions if energy rises.

 Cycle   1  Pass 1  IDiag  1:
 E=-0.494577558928443    
 DIIS: error= 2.09D-02 at cycle   1 NSaved=   1.
 NSaved= 1 IEnMin= 1 EnMin=-0.494577558928443     IErMin= 1 ErrMin= 2.09D-02
 ErrMax= 2.09D-02  0.00D+00 EMaxC= 1.00D-01 BMatC= 3.50D-03 BMatP= 3.50D-03
 IDIUse=3 WtCom= 7.91D-01 WtEn= 2.09D-01
 Coeff-Com:  0.100D+01
 Coeff-En:   0.100D+01
 Coeff:      0.100D+01
 Gap=     1.562 Goal=   None    Shift=    0.000
 GapD=    1.562 DampG=2.000 DampE=0.500 DampFc=1.0000 IDamp=-1.
 RMSDP=1.89D-02 MaxDP=4.30D-02              OVMax= 0.00D+00

 Cycle   2  Pass 1  IDiag  1:
 E=-0.496044588193642     Delta-E=       -0.001467029265 Rises=F Damp=F
 DIIS: error= 6.46D-03 at cycle   2 NSaved=   2.
 NSaved= 2 IEnMin= 2 EnMin=-0.496044588193642     IErMin= 2 ErrMin= 6.46D-03
 ErrMax= 6.46D-03  0.00D+00 EMaxC= 1.00D-01 BMatC= 3.34D-04 BMatP= 3.50D-03
 IDIUse=3 WtCom= 9.35D-01 WtEn= 6.46D-02
 Coeff-Com: -0.446D+00 0.145D+01
 Coeff-En:   0.000D+00 0.100D+01
 Coeff:     -0.417D+00 0.142D+01
 Gap=     1.565 Goal=   None    Shift=    0.000
 RMSDP=8.13D-03 MaxDP=1.85D-02 DE=-1.47D-03 OVMax= 0.00D+00

 Cycle   3  Pass 1  IDiag  1:
 E=-0.496198575024096     Delta-E=       -0.000153986830 Rises=F Damp=F
 DIIS: error= 1.28D-04 at cycle   3 NSaved=   3.
 NSaved= 3 IEnMin= 3 EnMin=-0.496198575024096     IErMin= 3 ErrMin= 1.28D-04
 ErrMax= 1.28D-04  0.00D+00 EMaxC= 1.00D-01 BMatC= 1.32D-07 BMatP= 3.34D-04
 IDIUse=3 WtCom= 9.99D-01 WtEn= 1.28D-03
 Large coefficients: NSaved=  3 BigCof=    0.00 CofMax=   10.00 Det= 1.08D-19
 Inversion failed.  Reducing to  2 matrices.
 Coeff-Com: -0.203D-01 0.102D+01
 Coeff-En:   0.000D+00 0.100D+01
 Coeff:     -0.203D-01 0.102D+01
 Gap=     1.565 Goal=   None    Shift=    0.000
 RMSDP=1.64D-04 MaxDP=3.73D-04 DE=-1.54D-04 OVMax= 0.00D+00

 Cycle   4  Pass 1  IDiag  1:
 E=-0.496198636018150     Delta-E=       -0.000000060994 Rises=F Damp=F
 DIIS: error= 5.09D-08 at cycle   4 NSaved=   3.
 NSaved= 3 IEnMin= 3 EnMin=-0.496198636018150     IErMin= 3 ErrMin= 5.09D-08
 ErrMax= 5.09D-08  0.00D+00 EMaxC= 1.00D-01 BMatC= 2.07D-14 BMatP= 1.32D-07
 IDIUse=1 WtCom= 1.00D+00 WtEn= 0.00D+00
 Large coefficients: NSaved=  3 BigCof=    0.00 CofMax=   10.00 Det= 2.65D-23
 Inversion failed.  Reducing to  2 matrices.
 Coeff-Com: -0.396D-03 0.100D+01
 Coeff:     -0.396D-03 0.100D+01
 Gap=     1.565 Goal=   None    Shift=    0.000
 RMSDP=6.51D-08 MaxDP=1.48D-07 DE=-6.10D-08 OVMax= 0.00D+00

 Cycle   5  Pass 1  IDiag  1:
 E=-0.496198636018159     Delta-E=       -0.000000000000 Rises=F Damp=F
 DIIS: error= 3.64D-17 at cycle   5 NSaved=   3.
 NSaved= 3 IEnMin= 3 EnMin=-0.496198636018159     IErMin= 3 ErrMin= 3.64D-17
 ErrMax= 3.64D-17  0.00D+00 EMaxC= 1.00D-01 BMatC= 1.06D-32 BMatP= 2.07D-14
 IDIUse=1 WtCom= 1.00D+00 WtEn= 0.00D+00
 Coeff-Com:  0.000D+00 0.000D+00 0.100D+01
 Coeff:      0.000D+00 0.000D+00 0.100D+01
 Gap=     1.565 Goal=   None    Shift=    0.000
 RMSDP=0.00D+00 MaxDP=0.00D+00 DE=-9.60D-15 OVMax= 0.00D+00

 SCF Done:  E(UHF) = -0.496198636018     A.U. after    5 cycles
            NFock=  5  Conv=0.00D+00     -V/T= 1.9645
 <Sx>= 0.0000 <Sy>= 0.0000 <Sz>= 0.5000 <S**2>= 0.7500 S= 0.5000
 <L.S>= 0.000000000000E+00
 KE= 5.144743151261D-01 PE=-1.010672951144D+00 EE= 0.000000000000D+00
 Annihilation of the first spin contaminant:
 S**2 before annihilation     0.7500,   after     0.7500
 Leave Link  502 at Fri Mar 16 23:47:15 2018, MaxMem=   100000000 cpu:               0.1 elap:               0.1
 (Enter /Users/hhratchian/.gaussian/gdv-current/gdv/l601.exe)
 Copying SCF densities to generalized density rwf, IOpCl= 1 IROHF=0.

 **********************************************************************

            Population analysis using the SCF Density.

 **********************************************************************

 Alpha  occ. eigenvalues --   -0.49620
 Alpha virt. eigenvalues --    1.06900
  Beta virt. eigenvalues --    0.11344   1.25789
     Alpha Molecular Orbital Coefficients:
                           1         2
                           O         V
     Eigenvalues --    -0.49620   1.06900
   1 2   H  1S          0.37341   1.25554
   2        2S          0.71732  -1.09602
     Beta Molecular Orbital Coefficients:
                           1         2
                           V         V
     Eigenvalues --     0.11344   1.25789
   1 2   H  1S          0.16398   1.29958
   2        2S          0.88622  -0.96458
     Alpha Density Matrix:
                           1         2
   1 2   H  1S          0.13943
   2        2S          0.26785   0.51455
     Beta Density Matrix:
                           1         2
   1 2   H  1S          0.00000
   2        2S          0.00000   0.00000
    Full Mulliken population analysis:
                           1         2
   1 2   H  1S          0.13943
   2        2S          0.17301   0.51455
     Gross orbital populations:
                         Total     Alpha     Beta      Spin
   1 2   H  1S          0.31244   0.31244   0.00000   0.31244
   2        2S          0.68756   0.68756   0.00000   0.68756
          Condensed to atoms (all electrons):
               1          2
     1  Bq   0.000000   0.000000
     2  H    0.000000   1.000000
          Atomic-Atomic Spin Densities.
               1          2
     1  Bq   0.000000   0.000000
     2  H    0.000000   1.000000
 Mulliken charges and spin densities:
               1          2
     1  Bq   0.000000   0.000000
     2  H    0.000000   1.000000
 Sum of Mulliken charges =   0.00000   1.00000
 Mulliken charges and spin densities with hydrogens summed into heavy atoms:
               1          2
     1  Bq   0.000000   1.000000
         Mulliken charges and spin densities condensed to fragments:
      1      0.000000      0.000000
      2      0.000000      1.000000
 Electronic spatial extent (au):  <R**2>=              6.2806
 Charge=              0.0000 electrons
 Dipole moment (field-independent basis, Debye):
    X=              0.0000    Y=              0.0000    Z=              0.0000  Tot=              0.0000
 Quadrupole moment (field-independent basis, Debye-Ang):
   XX=             -1.2148   YY=             -1.2148   ZZ=             -1.2148
   XY=              0.0000   XZ=              0.0000   YZ=              0.0000
 Traceless Quadrupole moment (field-independent basis, Debye-Ang):
   XX=             -0.0000   YY=             -0.0000   ZZ=              0.0000
   XY=              0.0000   XZ=              0.0000   YZ=              0.0000
 Octapole moment (field-independent basis, Debye-Ang**2):
  XXX=              0.0000  YYY=              0.0000  ZZZ=             -3.6444  XYY=              0.0000
  XXY=              0.0000  XXZ=             -1.2148  XZZ=              0.0000  YZZ=              0.0000
  YYZ=             -1.2148  XYZ=              0.0000
 Hexadecapole moment (field-independent basis, Debye-Ang**3):
 XXXX=             -1.1863 YYYY=             -1.1863 ZZZZ=             -8.4752 XXXY=              0.0000
 XXXZ=              0.0000 YYYX=              0.0000 YYYZ=              0.0000 ZZZX=              0.0000
 ZZZY=              0.0000 XXYY=             -0.3954 XXZZ=             -1.6103 YYZZ=             -1.6103
 XXYZ=              0.0000 YYXZ=              0.0000 ZZXY=              0.0000
 N-N= 0.000000000000D+00 E-N=-1.010672951144D+00  KE= 5.144743151261D-01
 Orbital energies and kinetic energies (alpha):
                                 1                 2
   1         O                -0.496199          0.514474
   2         V                 1.069000          1.965729
 Orbital energies and kinetic energies (beta):
                                 1                 2
   1         V                 0.113438          0.342678
   2         V                 1.257893          2.137525
 Total kinetic energy from orbitals= 5.144743151261D-01
                          Isotropic Fermi Contact Couplings
        Atom                 a.u.       MegaHertz       Gauss      10(-4) cm-1
     2  H(1)               0.24978    1116.50868     398.39806     372.42721
 --------------------------------------------------------
       Center         ----  Spin Dipole Couplings  ----
                      3XX-RR        3YY-RR        3ZZ-RR
 --------------------------------------------------------
     1   Atom       -0.079644     -0.079644      0.159287
     2   Atom        0.000000      0.000000      0.000000
 --------------------------------------------------------
                        XY            XZ            YZ
 --------------------------------------------------------
     1   Atom        0.000000      0.000000      0.000000
     2   Atom        0.000000      0.000000      0.000000
 --------------------------------------------------------


 ---------------------------------------------------------------------------------
              Anisotropic Spin Dipole Couplings in Principal Axis System
 ---------------------------------------------------------------------------------

       Atom             a.u.   MegaHertz   Gauss  10(-4) cm-1        Axes

              Baa     0.0000     0.000     0.000     0.000  1.0000  0.0000  0.0000
     2 H(1)   Bbb     0.0000     0.000     0.000     0.000 -0.0000  1.0000  0.0000
              Bcc     0.0000     0.000     0.000     0.000  0.0000  0.0000  1.0000
 

 ---------------------------------------------------------------------------------

 No NMR shielding tensors so no spin-rotation constants.
 Leave Link  601 at Fri Mar 16 23:47:15 2018, MaxMem=   100000000 cpu:               0.1 elap:               0.1
 (Enter /Users/hhratchian/.gaussian/gdv-current/gdv/l9999.exe)

 Test job not archived.
 1\1\GINC-STCLAIR2\SP\UHF\3-21G\H1(2)\HHRATCHIAN\16-Mar-2018\0\\#p test
  hf/3-21g pop=full nosymm out=mat\\test\\0,2\Bq,0,0.,0.,0.\H,0,0.,0.,1
 .\\Version=EM64M-GDVRevI.10+\HF=-0.4961986\S2=0.75\S2-1=0.\S2A=0.75\RM
 SD=0.000e+00\Dipole=0.,0.,0.\Quadrupole=0.,0.,0.,0.,0.,0.\PG=C01 [X(H1
 )]\\@


 LIVE PURE, SPEAK TRUE, RIGHT WRONG, FOLLOW THE KING...
 ELSE, WHEREFORE BORN......
           IDYLLS OF THE KING, TENNYSON

 Writing WrtUnf unformatted file "z-frag2.mat"
 Gaussian matrix elements                                         Version   2 NLab=11 Len12L=8 Len4L=8
 Write SHELL TO ATOM MAP                   from file     0 offset           0 length                   2 to matrix element file.
 Write SHELL TYPES                         from file     0 offset           0 length                   2 to matrix element file.
 Write NUMBER OF PRIMITIVES PER SHELL      from file     0 offset           0 length                   2 to matrix element file.
 Write PRIMITIVE EXPONENTS                 from file     0 offset           0 length                   3 to matrix element file.
 Write CONTRACTION COEFFICIENTS            from file     0 offset           0 length                   3 to matrix element file.
 Write P(S=P) CONTRACTION COEFFICIENTS     from file     0 offset           0 length                   3 to matrix element file.
 Write COORDINATES OF EACH SHELL           from file     0 offset           0 length                   6 to matrix element file.
 Write GAUSSIAN SCALARS                    from file   501 offset           0 to matrix element file.
 Write INTEGER ISO                         from file     0 offset           0 length                   2 to matrix element file.
 Write INTEGER FRAGMENT                    from file     0 offset           0 length                   2 to matrix element file.
 Write INTEGER SPIN                        from file     0 offset           0 length                   2 to matrix element file.
 Write REAL ZEFFECTIVE                     from file     0 offset           0 length                   2 to matrix element file.
 Write REAL GFACTOR                        from file     0 offset           0 length                   2 to matrix element file.
 Write REAL ZNUCLEAR                       from file     0 offset           0 length                   2 to matrix element file.
 Write MULLIKEN CHARGES                    from file     0 offset           0 length                   2 to matrix element file.
 Write NUCLEAR GRADIENT                    from file 10584 offset           0 length                   6 to matrix element file.
 Array NUCLEAR FORCE CONSTANTS              on  file 10585 does not exist.
 Write ELECTRIC DIPOLE MOMENT              from file     0 offset           0 length                   3 to matrix element file.
 Write NON-ADIABATIC COUPLING              from file 10810 offset           0 length                   6 to matrix element file.
 Write OVERLAP                             from file 10514 offset           0 length                   3 to matrix element file.
 Write CORE HAMILTONIAN ALPHA              from file 10515 offset           0 length                   3 to matrix element file.
 Write CORE HAMILTONIAN BETA               from file 10515 offset           3 length                   3 to matrix element file.
 Write KINETIC ENERGY                      from file 10516 offset           0 length                   3 to matrix element file.
 Write ORTHOGONAL BASIS                    from file 10685 offset           0 length                   4 to matrix element file.
 Write DIPOLE INTEGRALS                    from file 10518 offset           0 length                   9 to matrix element file.
 Write DIP VEL INTEGRALS                   from file 10572 offset           0 length                   9 to matrix element file.
 Write R X DEL INTEGRALS                   from file 10572 offset           9 length                   9 to matrix element file.
 Write ALPHA ORBITAL ENERGIES              from file     0 offset           0 length                   2 to matrix element file.
 Write BETA ORBITAL ENERGIES               from file     0 offset           0 length                   2 to matrix element file.
 Write ALPHA MO COEFFICIENTS               from file 10524 offset           0 length                   4 to matrix element file.
 Write BETA MO COEFFICIENTS                from file 10526 offset           0 length                   4 to matrix element file.
 Write ALPHA DENSITY MATRIX                from file 10528 offset           0 length                   3 to matrix element file.
 Write BETA DENSITY MATRIX                 from file 10530 offset           0 length                   3 to matrix element file.
 Write ALPHA SCF DENSITY MATRIX            from file 10528 offset           0 length                   3 to matrix element file.
 Write BETA SCF DENSITY MATRIX             from file 10530 offset           0 length                   3 to matrix element file.
 Write ALPHA FOCK MATRIX                   from file 10536 offset           0 length                   3 to matrix element file.
 Write BETA FOCK MATRIX                    from file 10538 offset           0 length                   3 to matrix element file.
 Write ALPHA SCF DENSITY                   from file     0 offset           0 length                   3 to matrix element file.
 Write BETA SCF DENSITY                    from file     0 offset           0 length                   3 to matrix element file.
 No 2e integrals to process.
 Job cpu time:       0 days  0 hours  0 minutes  1.0 seconds.
 Elapsed time:       0 days  0 hours  0 minutes  0.9 seconds.
 File lengths (MBytes):  RWF=      6 Int=      0 D2E=      0 Chk=      1 Scr=      1
 Normal termination of Gaussian DV at Fri Mar 16 23:47:15 2018.
